# generated by molpy

16 atoms
7 atom types
14 bonds
7 bond types
25 angles
12 angle types
27 dihedrals
8 dihedral types

0.00 0.00 xlo xhi
0.00 0.00 ylo yhi
0.00 0.00 zlo zhi

Atom Type Labels

1 f
2 c3
3 s6
4 o
5 ne
6 sy
7 Li+

Bond Type Labels

1 c3-f
2 o-sy
3 c3-sy
4 ne-sy
5 o-s6
6 ne-s6
7 c3-s6

Angle Type Labels

1 f-c3-f
2 c3-sy-o
3 o-sy-o
4 f-c3-sy
5 ne-sy-o
6 c3-sy-ne
7 ne-s6-o
8 o-s6-o
9 s6-ne-sy
10 f-c3-s6
11 c3-s6-o
12 c3-s6-ne

Dihedral Type Labels

1 f-c3-sy-o
2 f-c3-sy-ne
3 sy-ne-s6-o
4 s6-ne-sy-o
5 s6-ne-sy-c3
6 f-c3-s6-o
7 f-c3-s6-ne
8 sy-ne-s6-c3

Masses

f 19.000
c3 12.010
s6 32.060
o 16.000
ne 14.010
sy 32.060
Li+ 6.940

Atoms

1 1 f -0.272 3.540 1.420 0.000
2 1 c3 0.555 3.733 1.147 1.324
3 1 f -0.272 4.220 2.304 1.870
4 1 f -0.272 2.506 1.019 1.830
5 1 s6 1.484 4.869 -0.260 1.597
6 1 o -0.613 4.960 -0.407 3.055
7 1 o -0.657 4.239 -1.399 0.931
8 1 ne -1.059 6.132 0.358 0.945
9 1 sy 1.682 6.832 -0.585 -0.109
10 1 o -0.657 7.791 -1.548 0.441
11 1 o -0.657 6.009 -1.089 -1.208
12 1 c3 0.555 7.851 0.721 -0.881
13 1 f -0.272 8.746 0.244 -1.792
14 1 f -0.272 8.574 1.432 0.035
15 1 f -0.272 7.083 1.641 -1.540
16 1 Li+ 1.000 0.000 0.000 0.000

Bonds

1 c3-f 12 13
2 c3-f 12 14
3 c3-f 12 15
4 o-sy 9 10
5 o-sy 9 11
6 c3-sy 9 12
7 ne-sy 8 9
8 o-s6 5 6
9 o-s6 5 7
10 ne-s6 5 8
11 c3-f 2 3
12 c3-f 2 4
13 c3-s6 2 5
14 c3-f 1 2

Angles

1 f-c3-f 14 12 15
2 f-c3-f 13 12 14
3 f-c3-f 13 12 15
4 c3-sy-o 11 9 12
5 o-sy-o 10 9 11
6 c3-sy-o 10 9 12
7 f-c3-sy 9 12 13
8 f-c3-sy 9 12 14
9 f-c3-sy 9 12 15
10 ne-sy-o 8 9 10
11 ne-sy-o 8 9 11
12 c3-sy-ne 8 9 12
13 ne-s6-o 7 5 8
14 o-s6-o 6 5 7
15 ne-s6-o 6 5 8
16 s6-ne-sy 5 8 9
17 f-c3-s6 4 2 5
18 f-c3-f 3 2 4
19 f-c3-s6 3 2 5
20 c3-s6-o 2 5 6
21 c3-s6-o 2 5 7
22 c3-s6-ne 2 5 8
23 f-c3-f 1 2 3
24 f-c3-f 1 2 4
25 f-c3-s6 1 2 5

Dihedrals

1 f-c3-sy-o 11 9 12 13
2 f-c3-sy-o 11 9 12 14
3 f-c3-sy-o 11 9 12 15
4 f-c3-sy-o 10 9 12 13
5 f-c3-sy-o 10 9 12 14
6 f-c3-sy-o 10 9 12 15
7 f-c3-sy-ne 8 9 12 13
8 f-c3-sy-ne 8 9 12 14
9 f-c3-sy-ne 8 9 12 15
10 sy-ne-s6-o 7 5 8 9
11 sy-ne-s6-o 6 5 8 9
12 s6-ne-sy-o 5 8 9 10
13 s6-ne-sy-o 5 8 9 10
14 s6-ne-sy-o 5 8 9 11
15 s6-ne-sy-o 5 8 9 11
16 s6-ne-sy-c3 5 8 9 12
17 s6-ne-sy-c3 5 8 9 12
18 f-c3-s6-o 4 2 5 6
19 f-c3-s6-o 4 2 5 7
20 f-c3-s6-ne 4 2 5 8
21 f-c3-s6-o 3 2 5 6
22 f-c3-s6-o 3 2 5 7
23 f-c3-s6-ne 3 2 5 8
24 sy-ne-s6-c3 2 5 8 9
25 f-c3-s6-o 1 2 5 6
26 f-c3-s6-o 1 2 5 7
27 f-c3-s6-ne 1 2 5 8
